179
ps199_RPEA_v1_11_wB97XD_631gd_step_12_wB97XD_631gd_INVERSION.log
 O                 -0.25006800    0.97074000    0.31379700
 C                  0.19123200    1.64015500   -0.82006700
 C                 -1.01152400    0.15178400   -2.27171400
 C                 -2.13068900    1.19190500   -2.48325600
 C                 -2.18651100    2.19553000   -1.31883300
 C                 -0.79228000    2.78102300   -1.06074300
 O                  0.22382400    0.81011200   -1.96322100
 C                 -0.73932500   -0.68669300   -3.50258800
 C                 -0.31698500   -0.41877100    2.21135800
 C                 -0.80659400   -1.78525400    1.76459500
 C                  0.29923700   -2.30058000    0.86202000
 O                  0.74499900   -1.12315600    0.17639400
 C                  0.54214500    0.03550500    0.98716400
 C                 -0.21324000   -3.34146800   -0.13069500
 C                  1.93861400    0.51330000    1.37985400
 O                  1.92288500    1.49632200    2.37997600
 O                  0.15644800   -1.71747200   -3.13603400
 O                  0.68774600   -4.40258800   -0.37817200
 C                  0.28565900   -2.73150100   -4.10809800
 C                  1.19325200   -3.81249000   -3.56715700
 O                  2.49351900   -3.26552800   -3.37084300
 C                  3.46812800   -4.18837200   -2.89561400
 C                  3.68432800   -4.07284300   -1.40009000
 C                  3.47434300   -4.36030700    3.77351400
 C                  2.05522600   -4.83834500    3.52213700
 O                  1.85565300   -5.05403900    2.14294800
 C                  0.55008600   -5.47998800    1.83283800
 C                  0.42850300   -5.60043200    0.32584300
 C                  6.04228300    1.36510900    2.70386800
 C                  4.84132800    2.06010500    3.33590100
 O                  4.47516300    3.25150400    2.67028200
 C                  3.60679900    3.11438300    1.56547300
 C                  2.16012300    2.83017300    1.94887100
 O                 -3.38610100    0.61965300   -2.75756600
 C                 -3.72310100   -1.74848500   -2.42658300
 C                 -4.11528200   -2.01542300   -3.74241100
 C                 -3.90880300   -3.27156200   -4.29999100
 C                 -3.31038400   -4.28287200   -3.54605500
 C                 -2.93128900   -4.02765000   -2.23276100
 C                 -3.14009200   -2.76585100   -1.67971800
 C                 -3.90449200   -0.35810600   -1.86045300
 O                 -3.07911800    3.22925700   -1.66745200
 C                 -5.11969800    2.59087200   -0.46723900
 C                 -6.03296800    2.36986400   -1.50161100
 C                 -7.09122300    1.48572800   -1.32855900
 C                 -7.24776800    0.81275100   -0.11541000
 C                 -6.33317100    1.01849800    0.91291700
 C                 -5.26765500    1.89852200    0.73275700
 C                 -4.00091200    3.58727600   -0.64374600
 O                 -1.43626000    0.37138700    2.48208400
 C                 -2.49334200    2.28842000    3.38643500
 C                 -3.49271800    1.58362900    4.06205100
 C                 -4.70849700    2.19101000    4.35869800
 C                 -4.93741500    3.51592900    3.99057200
 C                 -3.94404600    4.22771700    3.32584100
 C                 -2.73132100    3.61262200    3.02197200
 C                 -1.17371500    1.64217600    3.06127000
 O                 -1.06201400   -2.70456900    2.78995800
 C                 -3.45173600   -2.95923600    2.37859500
 C                 -4.31729300   -1.99874400    1.85233900
 C                 -5.30239700   -2.36512300    0.93648200
 C                 -5.42268400   -3.69032000    0.53298800
 C                 -4.55048400   -4.65251800    1.03868200
 C                 -3.57029200   -4.28623500    1.95396800
 C                 -2.36749500   -2.58427500    3.35997500
 O                 -0.77826200    3.63846700    0.05880700
 C                  0.24742100    5.75788400   -0.63974600
 C                  1.30452200    5.89532200    0.26447600
 C                  2.43968600    6.62047800   -0.07721900
 C                  2.53032700    7.22483600   -1.33157700
 C                  1.48350600    7.09508900   -2.23890500
 C                  0.34881900    6.36111400   -1.89318700
 C                 -1.00471000    5.01626700   -0.23937000
 H                  1.21163400    2.01980600   -0.71914800
 H                 -1.26028400   -0.51666100   -1.44118700
 H                 -1.89544800    1.76904800   -3.38671600
 H                 -2.51330200    1.69043000   -0.40094500
 H                 -0.45209200    3.31926000   -1.95736200
 H                 -1.67980500   -1.10466100   -3.87542100
 H                 -0.29975200   -0.05632600   -4.29234700
 H                  0.32876200   -0.51345500    3.09659600
 H                 -1.70809400   -1.61509800    1.15650100
 H                  1.12111800   -2.72212300    1.45599900
 H                 -1.16338100   -3.74988600    0.23851800
 H                 -0.39737300   -2.84285600   -1.08668000
 H                  2.45512800   -0.36274100    1.78048100
 H                  2.50519600    0.82962900    0.49337500
 H                  0.70431500   -2.32032100   -5.03971600
 H                 -0.69674300   -3.17309800   -4.33208900
 H                  0.80231200   -4.20961800   -2.62306100
 H                  1.24572800   -4.62713800   -4.30293200
 H                  4.40077400   -3.96397200   -3.42225600
 H                  3.16963900   -5.21364800   -3.14467100
 O                  4.33297500   -2.82686200   -1.17171500
 H                  2.72087300   -4.11116200   -0.88173900
 H                  4.17697400   -4.91031000    3.13689800
 H                  3.72740000   -4.55926500    4.81833300
 H                  1.33987000   -4.09607900    3.90598100
 H                  1.90102800   -5.78046000    4.07233400
 H                  0.34581700   -6.46748900    2.27896500
 H                 -0.18688600   -4.76858700    2.23154800
 H                 -0.57858000   -5.97443500    0.08341400
 H                  1.16261400   -6.32026800   -0.04688600
 H                  6.79280700    2.11717100    2.45153800
 H                  6.48998700    0.65537300    3.41113500
 H                  3.98682500    1.38205000    3.42602000
 H                  5.13829400    2.36400500    4.34575200
 H                  3.98359400    2.36826300    0.85306400
 H                  3.62934000    4.08166200    1.05324600
 H                  1.89006200    3.46055700    2.80151600
 H                  1.49291700    3.09138700    1.11748400
 H                 -4.56372200   -1.22179900   -4.33323400
 H                 -4.21795300   -3.46713900   -5.32245600
 H                 -3.15447400   -5.26621300   -3.97995700
 H                 -2.47743900   -4.81072300   -1.63121600
 H                 -2.86236100   -2.57392700   -0.64732700
 H                 -3.45851200   -0.28254600   -0.86065400
 H                 -4.96754500   -0.12552200   -1.74940400
 H                 -5.90487400    2.89205100   -2.44552700
 H                 -7.80243000    1.32681000   -2.13359500
 H                 -8.08551800    0.13585800    0.02654100
 H                 -6.44945300    0.50333700    1.86258800
 H                 -4.55586700    2.05737100    1.53720100
 H                 -3.47669600    3.73131200    0.30928700
 H                 -4.40350300    4.55454700   -0.95982400
 H                 -3.31550700    0.55297000    4.35571300
 H                 -5.47850200    1.63244000    4.88249900
 H                 -5.88706400    3.98880600    4.21987600
 H                 -4.11595800    5.25958800    3.03433500
 H                 -1.95940600    4.15879000    2.48690200
 H                 -0.56266700    1.51017400    3.96686400
 H                 -0.61365700    2.26842700    2.36093100
 H                 -4.21071600   -0.95762100    2.15170300
 H                 -5.96171600   -1.60761900    0.52524000
 H                 -6.18381800   -3.97226300   -0.18749900
 H                 -4.64100100   -5.68764400    0.72326000
 H                 -2.89640200   -5.03755800    2.36057100
 H                 -2.36022000   -3.26871500    4.21191700
 H                 -2.51668000   -1.56515800    3.73133600
 H                  1.22192100    5.45041100    1.25265200
 H                  3.24681200    6.73260500    0.64123000
 H                  3.41046200    7.80351000   -1.59501100
 H                  1.54613100    7.56737200   -3.21438600
 H                 -0.47242000    6.27051000   -2.60026600
 H                 -1.76818500    5.10887100   -1.01705400
 H                 -1.41074300    5.44216600    0.68363700
 H                  4.32138100   -4.89438000   -1.04645100
 O                  3.64686600   -2.95711800    3.62462900
 O                  5.76404900    0.70798600    1.46884500
 C                  4.72876300   -1.17757800    2.61075700
 C                  4.11376100   -2.42608300    2.46781800
 C                  3.95511700   -3.03343200    1.22161000
 C                  4.44103300   -2.35569000    0.10187300
 C                  5.04418900   -1.10612600    0.21451400
 C                  5.18165100   -0.51224400    1.47377500
 H                  4.81172600   -0.76779300    3.60830600
 H                  3.42251500   -3.97066700    1.13892400
 H                  5.47074400   -0.61919800   -0.65311700
 C                  3.24846300    0.10499700   -3.24579700
 H                  2.44194300    0.22730200   -3.97453500
 C                  4.37531200   -0.70559300   -3.87637200
 N                  2.62220800   -0.69238800   -2.13534800
 C                  4.32886400    4.00052300   -1.74079600
 C                  3.07132600    3.78412500   -2.29646100
 C                  2.73938000    2.52755500   -2.79165200
 C                  3.64970300    1.47033500   -2.72485900
 C                  4.91094900    1.70158600   -2.17087600
 C                  5.24836700    2.95845600   -1.67863700
 H                  4.58706500    4.98357200   -1.36050400
 H                  2.35542000    4.59676100   -2.35432200
 H                  1.75984300    2.35979300   -3.23093200
 H                  5.65360600    0.91125100   -2.14146500
 H                  6.23073200    3.11898600   -1.24668800
 H                  5.10650500   -1.03274100   -3.13163800
 H                  3.96852700   -1.59765700   -4.35800000
 H                  4.88728000   -0.09837600   -4.62641600
 H                  2.47745000   -1.67194200   -2.44202300
 H                  3.21477900   -0.70781100   -1.29897500
 H                  1.69315800   -0.30979000   -1.88863300

