179
ps199_SPEA_v1_11_wB97XD_631gd_step_12_wB97XD_631gd.gjf
O          0.23084        0.96113       -0.30511 1
C         -0.22475        1.63260        0.81978 1
C          1.03415        0.19624        2.27352 1
C          2.12237        1.27191        2.47014 1
C          2.13512        2.27352        1.30153 1
C          0.72017        2.80697        1.04652 1
O         -0.22283        0.82095        1.97938 1
C          0.80223       -0.65406        3.50434 1
C          0.31288       -0.40818       -2.21489 1
C          0.84285       -1.75924       -1.76603 1
C         -0.24602       -2.30792       -0.86272 1
O         -0.74502       -1.14379       -0.18971 1
C         -0.55291        0.02428       -0.98812 1
C          0.30489       -3.31747        0.14192 1
C         -1.95520        0.49141       -1.37583 1
O         -1.94890        1.49271       -2.35684 1
O         -0.07176       -1.70556        3.14429 1
O         -0.55679       -4.40728        0.40465 1
C         -0.16715       -2.72294        4.11646 1
C         -1.06724       -3.81799        3.59027 1
O         -2.37887       -3.29343        3.40501 1
C         -3.34172       -4.23955        2.95271 1
C         -3.56218       -4.15841        1.45523 1
C         -3.34248       -4.51988       -3.72734 1
C         -1.91121       -4.96134       -3.48086 1
O         -1.69666       -5.14314       -2.09934 1
C         -0.37543       -5.51400       -1.78691 1
C         -0.24881       -5.60576       -0.27839 1
C         -6.06707        1.14411       -2.73800 1
C         -4.88488        1.88234       -3.35556 1
O         -4.58320        3.09491       -2.69604 1
C         -3.73978        3.00749       -1.56709 1
C         -2.27053        2.80486       -1.91387 1
O          3.39779        0.74101        2.73366 1
C          3.80613       -1.61513        2.40172 1
C          4.22894       -1.87039        3.71035 1
C          4.06277       -3.13019        4.27317 1
C          3.47471       -4.15661        3.53167 1
C          3.06551       -3.91278        2.22521 1
C          3.23403       -2.64738        1.66692 1
C          3.93893       -0.22074        1.83228 1
O          2.98820        3.34226        1.64312 1
C          5.04376        2.77028        0.43548 1
C          5.96797        2.58055        1.46637 1
C          7.05326        1.73041        1.29039 1
C          7.22615        1.06025        0.07786 1
C          6.30103        1.23448       -0.94684 1
C          5.20871        2.08033       -0.76367 1
C          3.89358        3.72981        0.61546 1
O          1.40895        0.41130       -2.49243 1
C          2.41068        2.35696       -3.40144 1
C          3.42535        1.67661       -4.07925 1
C          4.62089        2.31682       -4.38903 1
C          4.81382        3.65053       -4.03234 1
C          3.80503        4.33791       -3.36509 1
C          2.61305        3.69008       -3.04765 1
C          1.11075        1.67725       -3.06531 1
O          1.12373       -2.67383       -2.78887 1
C          3.52341       -2.84453       -2.39005 1
C          4.36070       -1.85277       -1.87617 1
C          5.36421       -2.18099       -0.96582 1
C          5.53089       -3.49894       -0.55521 1
C          4.68690       -4.49236       -1.04818 1
C          3.68851       -4.16421       -1.95816 1
C          2.42124       -2.51235       -3.36688 1
O          0.66956        3.65674       -0.07740 1
C         -0.47042        5.70552        0.65316 1
C         -1.52303        5.86507       -0.25315 1
C         -2.69392        6.51097        0.12605 1
C         -2.82580        7.01211        1.42147 1
C         -1.78592        6.85632        2.33272 1
C         -0.61496        6.20321        1.94851 1
C          0.81596        5.04654        0.21723 1
H         -1.25657        1.97672        0.71627 1
H          1.29111       -0.46270        1.43805 1
H          1.87709        1.84443        3.37372 1
H          2.47756        1.77801        0.38412 1
H          0.36645        3.33702        1.94256 1
H          1.75874       -1.04933        3.86070 1
H          0.35859       -0.04091        4.30499 1
H         -0.33442       -0.52364       -3.09673 1
H          1.74023       -1.56022       -1.16054 1
H         -1.04696       -2.76781       -1.45627 1
H          1.26797       -3.69632       -0.22520 1
H          0.47351       -2.80099        1.09145 1
H         -2.45943       -0.38617       -1.79002 1
H         -2.52697        0.78839       -0.48599 1
H         -0.57177       -2.31880        5.05704 1
H          0.82616       -3.14988        4.32023 1
H         -0.67999       -4.21378        2.64395 1
H         -1.09911       -4.62996        4.33022 1
H         -4.27548       -4.01613        3.47741 1
H         -3.02914       -5.25547        3.22270 1
O         -4.22840       -2.92644        1.20423 1
H         -2.59891       -4.19344        0.93580 1
H         -4.02741       -5.07668       -3.07750 1
H         -3.59955       -4.73835       -4.76738 1
H         -1.21702       -4.21002       -3.88540 1
H         -1.73943       -5.91059       -4.01331 1
H         -0.13357       -6.49948       -2.21842 1
H          0.33304       -4.78061       -2.19779 1
H          0.77231       -5.93480       -0.02968 1
H         -0.95377       -6.34816        0.10607 1
H         -6.85045        1.86743       -2.50207 1
H         -6.47609        0.41244       -3.44625 1
H         -4.00130        1.23929       -3.42185 1
H         -5.17303        2.16353       -4.37445 1
H         -4.09469        2.24446       -0.86090 1
H         -3.82718        3.97367       -1.05984 1
H         -2.01185        3.46048       -2.75069 1
H         -1.64056        3.08971       -1.06143 1
H          4.66896       -1.06531        4.29194 1
H          4.39510       -3.31667        5.29003 1
H          3.35006       -5.14259        3.96968 1
H          2.61946       -4.70759        1.63330 1
H          2.93288       -2.46355        0.63967 1
H          3.48058       -0.16090        0.83704 1
H          4.99278        0.04595        1.71046 1
H          5.82730        3.10022        2.40989 1
H          7.77255        1.59594        2.09269 1
H          8.08450        0.41018       -0.06634 1
H          6.42956        0.72158       -1.89615 1
H          4.48872        2.21439       -1.56520 1
H          3.36052        3.85577       -0.33530 1
H          4.26520        4.70996        0.92963 1
H          3.27605        0.63929       -4.36469 1
H          5.40300        1.77691       -4.91449 1
H          5.74757        4.14914       -4.27215 1
H          3.94912        5.37631       -3.08183 1
H          1.82995        4.21746       -2.50992 1
H          0.49478        1.53319       -3.96564 1
H          0.54132        2.28734       -2.35851 1
H          4.21766       -0.81758       -2.18097 1
H          6.00154       -1.39978       -0.56433 1
H          6.30622       -3.75120        0.16115 1
H          4.81355       -5.52189       -0.72693 1
H          3.03691       -4.93982       -2.35536 1
H          2.43247       -3.20166       -4.21484 1
H          2.53347       -1.49105       -3.74503 1
H         -1.41003        5.50099       -1.27116 1
H         -3.49659        6.64302       -0.59387 1
H         -3.73344        7.53071        1.71501 1
H         -1.88144        7.24789        3.34069 1
H          0.20250        6.09710        2.65789 1
H          1.59266        5.18530        0.97515 1
H          1.16871        5.49645       -0.71579 1
H         -4.18790       -4.99576        1.11890 1
O         -3.54237       -3.11911       -3.59354 1
O         -5.77855        0.50887       -1.49472 1
C         -4.67821       -1.35837       -2.60733 1
C         -4.02501       -2.58462       -2.44408 1
C         -3.84835       -3.16728       -1.18822 1
C         -4.35145       -2.48341       -0.07919 1
C         -4.98867       -1.25386       -0.21233 1
C         -5.15186       -0.68908       -1.48088 1
H         -4.77621       -0.96959       -3.61200 1
H         -3.28948       -4.08783       -1.09147 1
H         -5.41135       -0.75685        0.65056 1
C         -3.57609       -0.15867        3.02504 2
H         -4.44882       -0.81465        2.96395 2
C         -3.00279       -0.20552        4.43811 2
N         -2.57771       -0.76845        2.08716 2
C         -4.65849        3.80185        1.71083 2
C         -3.36075        3.54197        2.14517 2
C         -3.01610        2.26747        2.57921 2
C         -3.95431        1.23114        2.56086 2
C         -5.25283        1.50493        2.13212 2
C         -5.60543        2.78389        1.70857 2
H         -4.92434        4.79989        1.37730 2
H         -2.62173        4.33597        2.15827 2
H         -2.00815        2.08045        2.93892 2
H         -6.00472        0.72032        2.14108 2
H         -6.61924        2.97877        1.37457 2
H         -2.06657        0.35832        4.50243 2
H         -3.71630        0.24121        5.13424 2
H         -2.81326       -1.23957        4.73672 2
H         -2.36405       -1.73203        2.40100 2
H         -2.94209       -0.82372        1.13119 2
H         -1.67857       -0.25340        2.06340 2

