131
sacharoza5Bn_SPEA_step_938_wB97XD_631gd_INVERSION_try3_step_1159_wB97XD_631gd_FREQ.gjf
 C                  0.85960000    1.63503600   -0.87518300
 C                  1.30899100    2.31882400    0.41935900
 C                  2.17888900    1.39243400    1.26986400
 C                  3.26963900    0.70844500    0.44679400
 C                  2.64848400    0.08208000   -0.80447400
 O                  1.99304600    1.08598300   -1.56194100
 O                  1.71953200   -0.84492400   -0.35133700
 C                  1.53552400   -2.09164700   -0.98210600
 O                  1.90014500   -2.06927500   -2.33639900
 C                  0.00456600   -2.36245100   -0.95012000
 C                 -0.46231800   -2.04140800   -2.36689600
 C                  0.79455700   -2.21579800   -3.23050700
 C                  2.45475700   -3.10525800   -0.28807500
 O                  2.48336200   -2.94590000    1.10432200
 C                  0.99183500   -1.19768400   -4.34835500
 C                  0.12312600    2.56752500   -1.82732500
 O                  0.87697700    0.13736500   -3.90405400
 O                 -0.81228800    1.88133400   -2.65425100
 O                 -0.69958300   -1.54899400   -0.04507400
 C                 -1.87903000   -2.88853400    1.61368900
 C                 -2.88890700   -3.11142200    0.68061000
 C                 -3.98075400   -3.91403600    1.00414500
 C                 -4.07648800   -4.49720300    2.26189500
 C                 -3.06416900   -4.28456800    3.19639200
 C                 -1.97254000   -3.48914800    2.87127700
 C                 -0.70219500   -1.98914900    1.31335200
 O                 -1.52339600   -2.90709500   -2.67867800
 C                 -3.13858900   -1.38537100   -3.71019300
 C                 -4.33913600   -1.47931600   -2.99583700
 C                 -5.17780200   -0.37377900   -2.87441000
 C                 -4.81455800    0.84539400   -3.45215700
 C                 -3.61080500    0.95452000   -4.14146200
 C                 -2.78249100   -0.15940200   -4.27311700
 C                 -2.25570900   -2.60291200   -3.85667600
 O                  3.86116800   -0.30517400    1.24145600
 C                  5.84818900   -0.86846500   -0.06558000
 C                  6.30566300    0.00431100   -1.05370200
 C                  6.75077700   -0.48616500   -2.27906300
 C                  6.74780300   -1.85664000   -2.52131100
 C                  6.30530000   -2.73631100   -1.53507900
 C                  5.85868300   -2.24308600   -0.31388000
 C                  5.29101100   -0.34892600    1.23369700
 O                  2.70884600    2.18064300    2.31059000
 C                  1.90778400    0.64794100    4.05406000
 C                  2.01956400   -0.74173500    4.07285300
 C                  0.97715700   -1.53120500    4.55298600
 C                 -0.19089300   -0.93205800    5.01386600
 C                 -0.31725400    0.45694500    4.98481100
 C                  0.72455900    1.24013200    4.50187500
 C                  3.03048000    1.50841600    3.52769200
 O                  0.14105000    2.64251000    1.15015400
 C                 -0.18017100    5.01576900    0.80058700
 C                  0.82332600    5.74827800    0.16506600
 C                  0.50550900    6.66163600   -0.83795500
 C                 -0.82133600    6.85455600   -1.20987800
 C                 -1.83317500    6.14307100   -0.56683500
 C                 -1.51030100    5.23256700    0.43257800
 C                  0.14941700    3.92524500    1.78635900
 H                  0.19455500    0.81187300   -0.59165400
 H                  1.88032500    3.22263900    0.16916000
 H                  1.52130800    0.61193900    1.67013700
 H                  4.01848200    1.44849100    0.14104100
 H                  3.39953100   -0.35763200   -1.46382000
 H                 -0.19375400   -3.42201500   -0.74670400
 H                 -0.77307400   -0.98870700   -2.41124800
 H                  0.80795300   -3.22880700   -3.65422500
 H                  3.44873300   -2.97783000   -0.73744200
 H                  2.11620500   -4.12273800   -0.50392900
 H                  2.82345900   -2.04755500    1.26773700
 H                  1.97705100   -1.36566800   -4.80070800
 H                  0.23997400   -1.33818200   -5.12913800
 H                 -0.45805800    3.28743000   -1.24813400
 H                  0.84329600    3.12386200   -2.43826900
 H                  1.53030500    0.31032100   -3.19845900
 H                 -0.32668800    1.28627000   -3.26357000
 H                 -2.81337000   -2.67768300   -0.31168300
 H                 -4.75859200   -4.08612300    0.26541900
 H                 -4.92682200   -5.12411500    2.51222500
 H                 -3.12285600   -4.74803200    4.17663500
 H                 -1.18101600   -3.33094100    3.59904500
 H                 -0.75552400   -1.07795100    1.91767300
 H                  0.25505700   -2.47164100    1.54307300
 H                 -4.62473300   -2.43018000   -2.55306800
 H                 -6.12463600   -0.46798200   -2.35067900
 H                 -5.47511400    1.70313800   -3.37113800
 H                 -3.31368500    1.90147900   -4.57900200
 H                 -1.85083800   -0.07073100   -4.82672500
 H                 -2.86509300   -3.49114900   -4.03851100
 H                 -1.58403400   -2.48435600   -4.71644300
 H                  6.32565000    1.07489500   -0.86196700
 H                  7.10883100    0.20153000   -3.03890600
 H                  7.10281300   -2.24165700   -3.47223300
 H                  6.31631700   -3.80689400   -1.71512600
 H                  5.51110800   -2.92787000    0.45673000
 H                  5.55032100   -1.01328400    2.06190600
 H                  5.68307700    0.65100100    1.46058700
 H                  2.92949300   -1.20965700    3.70782000
 H                  1.08583300   -2.61169400    4.57115500
 H                 -0.99877100   -1.54458700    5.40394400
 H                 -1.22206100    0.93031900    5.35599000
 H                  0.62978000    2.32290700    4.48379800
 H                  3.25122000    2.31732700    4.22941900
 H                  3.93755300    0.90772100    3.40673200
 H                  1.86062500    5.61015300    0.46116700
 H                  1.29454500    7.22685800   -1.32428700
 H                 -1.06970700    7.56923700   -1.98818400
 H                 -2.87199800    6.30843800   -0.83657000
 H                 -2.29760200    4.68422500    0.94398500
 H                  1.11831900    4.08564700    2.26821500
 H                 -0.61743900    3.85649500    2.56307500
 C                 -2.91716600    0.45918300    2.47936200
 C                 -3.49934500   -0.33962200    3.45924700
 C                 -4.71269200   -0.97385300    3.21807100
 C                 -5.35178600   -0.80265700    1.99351400
 C                 -4.77346100   -0.00445600    1.01468300
 C                 -3.54837300    0.62563400    1.24767200
 C                 -2.87524400    1.42868900    0.16025700
 C                 -3.72638900    2.53752600   -0.44511100
 N                 -2.46608700    0.48346500   -0.93647200
 H                 -1.95868300    0.94033900    2.66507800
 H                 -2.99745700   -0.47679500    4.41056900
 H                 -5.15311100   -1.61248500    3.97637300
 H                 -6.29761100   -1.29826600    1.80000400
 H                 -5.28016300    0.11718800    0.05953100
 H                 -1.93762800    1.84838300    0.53947900
 H                 -4.03492000    3.22848600    0.34260100
 H                 -3.16308700    3.09589700   -1.20020600
 H                 -4.63202100    2.13834000   -0.91120400
 H                 -1.88131800   -0.29011800   -0.56285500
 H                 -1.91365400    0.98544000   -1.67401900
 H                 -3.28753200    0.05968800   -1.38114100

