131
sacharoza5Bn_RPEA_step_775_wB97XD_631gd_FREQ.gjf
 C                 -0.85011600    0.05481600   -1.73808200
 C                 -0.69933900   -1.46681900   -1.81440800
 C                 -1.67661600   -2.17835300   -0.86608600
 C                 -3.08818900   -1.58995400   -1.00075000
 C                 -3.03230700   -0.06836500   -0.84013300
 O                 -2.21079700    0.45471500   -1.87065500
 O                 -2.49216600    0.19350600    0.41633900
 C                 -2.78354200    1.40947600    1.07026000
 O                 -3.34145600    2.35811100    0.18955200
 C                 -1.46041400    2.03460300    1.60817800
 C                 -1.19492000    3.20525800    0.66804000
 C                 -2.57540100    3.56330800    0.13379200
 C                 -3.81519500    1.11158400    2.15586100
 O                 -4.16869100    2.27934400    2.85267900
 C                 -2.60106200    4.09052600   -1.28941800
 C                 -0.04000200    0.78786700   -2.80147000
 O                 -1.99275600    3.20369300   -2.20800000
 O                  0.44612600    2.03515900   -2.33102800
 O                 -0.34200800    1.18199900    1.57252700
 C                  1.03287900   -0.46107900    2.54631600
 C                  1.34154400   -1.60712500    1.81332200
 C                  2.64083600   -2.10519000    1.80490200
 C                  3.63876800   -1.46613800    2.53283800
 C                  3.34265700   -0.31360200    3.25673400
 C                  2.04632100    0.18909900    3.25815400
 C                 -0.35252700    0.11670800    2.52248800
 O                 -0.66179700    4.36385800    1.25464700
 C                  1.75017000    4.49030700    0.76434600
 C                  3.07024100    4.57155400    1.22079600
 C                  4.11190000    4.84232300    0.33911800
 C                  3.85123000    5.01012700   -1.02080500
 C                  2.54235400    4.92114600   -1.48300800
 C                  1.49690300    4.67632900   -0.59277200
 C                  0.64492800    4.25957300    1.77836300
 O                 -3.92616100   -2.17240300   -0.03050600
 C                 -6.09635800   -1.27458000   -0.69524400
 C                 -6.29412400   -0.75114100   -1.97320400
 C                 -6.99211900    0.44160100   -2.15026500
 C                 -7.50629000    1.11671200   -1.04698900
 C                 -7.33296600    0.58985100    0.23179100
 C                 -6.63337400   -0.59956200    0.40373400
 C                 -5.24148900   -2.49808700   -0.47734900
 O                 -1.63828700   -3.54527300   -1.20126000
 C                 -1.30235400   -4.38357600    1.10095000
 C                 -1.83116900   -3.63427500    2.15599200
 C                 -1.15178700   -3.54032100    3.36785500
 C                  0.06453700   -4.19505600    3.53933700
 C                  0.60076000   -4.94379300    2.49471200
 C                 -0.07908500   -5.03465800    1.28363100
 C                 -2.04592600   -4.49298100   -0.20941200
 O                  0.66353500   -1.69256300   -1.48621900
 C                  2.58664400   -2.97892700   -2.13313200
 C                  2.95138400   -2.19989100   -3.23530500
 C                  4.25579000   -2.22211200   -3.71799900
 C                  5.21257700   -3.03334900   -3.10854200
 C                  4.85613600   -3.81797100   -2.01608600
 C                  3.55114400   -3.78323900   -1.52821500
 C                  1.15515900   -3.01972100   -1.66847900
 H                 -0.49808700    0.35664900   -0.74440400
 H                 -0.89708300   -1.82189200   -2.83808000
 H                 -1.33500200   -2.01330200    0.16226000
 H                 -3.45947100   -1.80247200   -2.01283000
 H                 -4.00817400    0.39720500   -0.97509600
 H                 -1.63891800    2.40959700    2.62600200
 H                 -0.55327900    2.83249900   -0.14044400
 H                 -3.01716600    4.31014900    0.80609100
 H                 -3.39134100    0.41179800    2.88158400
 H                 -4.67665700    0.62841500    1.67711700
 H                 -4.69278500    2.82043000    2.24884100
 H                 -3.63903900    4.28854700   -1.58369800
 H                 -2.04844000    5.03288800   -1.33018800
 H                  0.83997800    0.19448400   -3.06190400
 H                 -0.64585600    0.91736800   -3.70584100
 H                 -2.39504200    2.31945500   -2.10369700
 H                 -0.31682100    2.65431400   -2.28383300
 H                  0.56072500   -2.12318400    1.26366300
 H                  2.87038700   -3.00024000    1.23598700
 H                  4.65093800   -1.85432600    2.52593400
 H                  4.12357600    0.18861200    3.81830500
 H                  1.80853900    1.08259500    3.83130600
 H                 -1.08930800   -0.64025600    2.23224300
 H                 -0.62858200    0.51673800    3.50888800
 H                  3.27966400    4.44811700    2.28161500
 H                  5.12795700    4.92791300    0.71309500
 H                  4.66201500    5.22130900   -1.71082000
 H                  2.32630500    5.06069800   -2.53764600
 H                  0.47508900    4.66421100   -0.95654800
 H                  0.78709200    3.28738500    2.26979500
 H                  0.70771400    5.02944100    2.55338200
 H                 -5.89631900   -1.27697000   -2.83830700
 H                 -7.13903200    0.84036100   -3.14924700
 H                 -8.05297100    2.04457900   -1.18372700
 H                 -7.75299400    1.09997500    1.09359700
 H                 -6.50114800   -1.01387300    1.40052700
 H                 -5.65544000   -3.12679500    0.31506000
 H                 -5.18088400   -3.09980400   -1.39497900
 H                 -2.78069200   -3.12395600    2.01602300
 H                 -1.57689900   -2.96213600    4.18313800
 H                  0.59333000   -4.12294400    4.48437800
 H                  1.54434900   -5.46417600    2.62851600
 H                  0.32900300   -5.63984700    0.47669800
 H                 -1.84595600   -5.46020200   -0.67712000
 H                 -3.12113800   -4.41010400   -0.03436600
 H                  2.20123900   -1.58998600   -3.73233200
 H                  4.52530100   -1.61709800   -4.57849400
 H                  6.22795700   -3.05808600   -3.49114500
 H                  5.59222900   -4.46143400   -1.54361800
 H                  3.27541300   -4.40564800   -0.67999800
 H                  0.53411800   -3.53652800   -2.40764300
 H                  1.06473200   -3.57375600   -0.72765500
 C                  5.28261600    1.34109700    0.99743400
 C                  6.37164000    0.72763300    1.61016100
 C                  6.79438800   -0.52684100    1.18101200
 C                  6.11515100   -1.17030400    0.14867500
 C                  5.02712700   -0.55706300   -0.46120600
 C                  4.60898700    0.70876600   -0.04722800
 C                  3.48848000    1.43404700   -0.75361300
 C                  3.63686400    1.48156200   -2.26939600
 N                  2.13763000    0.84583000   -0.41965900
 H                  4.96006300    2.32601300    1.32347100
 H                  6.89618600    1.23467600    2.41427500
 H                  7.65319100   -1.00048400    1.64676600
 H                  6.43555000   -2.14926300   -0.19367200
 H                  4.51782000   -1.06869400   -1.27171300
 H                  3.42647400    2.45381900   -0.37241400
 H                  2.82131200    2.05443800   -2.71872200
 H                  4.58405200    1.96925600   -2.51080400
 H                  3.65463100    0.47672900   -2.70358300
 H                  1.41422900    1.40968000   -0.91477300
 H                  1.93447000    0.86726800    0.58681100
 H                  2.02048200   -0.13293600   -0.72418800

