131
sacharoza5Bn_SPEA_step_938_wB97XD_631gd_INVERSION_try3_step_18_wB97XD_631gd_FREQ.gjf
 C                 -0.88874200   -0.85760100   -1.80901300
 C                 -1.54008600   -2.19133100   -1.43629300
 C                 -2.50191900   -1.98439300   -0.27197000
 C                 -3.48050600   -0.85837300   -0.61620000
 C                 -2.73096900    0.40776800   -1.05645500
 O                 -1.88412800    0.10324100   -2.16210100
 O                 -1.94264000    0.84292700    0.00424300
 C                 -1.98923800    2.18818900    0.44541600
 O                 -2.15716100    3.09015200   -0.61433000
 C                 -0.61424900    2.49152900    1.10809400
 C                 -0.04373800    3.67327200    0.31910700
 C                 -1.00738200    3.89952900   -0.85816600
 C                 -3.17911700    2.36454800    1.38755500
 O                 -3.22253700    1.35811400    2.36055500
 C                 -0.42441800    3.53375100   -2.21490400
 C                  0.11098400   -1.00886600   -2.95434900
 O                  0.01310600    2.18527100   -2.25599800
 O                  1.35710600   -1.48145100   -2.45541400
 O                  0.31955500    1.44819000    1.03693800
 C                  1.39627700   -0.45120500    1.84475700
 C                  1.28158500   -1.69264100    1.22220000
 C                  2.41999000   -2.43354300    0.90801700
 C                  3.68214500   -1.93825500    1.22132600
 C                  3.80644300   -0.70598900    1.86141600
 C                  2.66858700    0.03330700    2.16885600
 C                  0.20120900    0.43848900    2.04041000
 O                  0.04904500    4.78697200    1.17783300
 C                  2.45410500    5.21263700    0.95436400
 C                  2.75655900    4.19249900    1.85830100
 C                  4.07317500    3.77170800    2.03036400
 C                  5.10237400    4.37359100    1.30915100
 C                  4.80595600    5.38888700    0.40253300
 C                  3.48786800    5.79831400    0.22196900
 C                  1.03357300    5.72488800    0.79778400
 O                 -4.26580000   -0.56691700    0.52353600
 C                 -6.21517100    0.52650800   -0.46726000
 C                 -6.41726400    0.41523300   -1.84399300
 C                 -6.83377800    1.51578300   -2.58893400
 C                 -7.05896200    2.73618200   -1.95916400
 C                 -6.87812500    2.85218700   -0.58236100
 C                 -6.46123900    1.75152400    0.15818900
 C                 -5.68610500   -0.63164800    0.33658200
 O                 -3.16149600   -3.20020700   -0.01630900
 C                 -2.45613800   -3.25819100    2.33733700
 C                 -2.42356200   -2.15061000    3.18443000
 C                 -1.36210800   -1.96463300    4.06809300
 C                 -0.31726600   -2.88235200    4.10368900
 C                 -0.34155100   -3.99377900    3.26235100
 C                 -1.40642400   -4.17781100    2.38901700
 C                 -3.57100200   -3.43613800    1.33623100
 O                 -0.46326200   -3.04772600   -1.10846900
 C                  0.72177500   -5.07196600   -1.16542500
 C                  1.04180600   -5.80813700   -0.02594800
 C                  2.33358500   -6.29287000    0.16452700
 C                  3.32046900   -6.03755000   -0.78313700
 C                  3.00800300   -5.31011000   -1.93023300
 C                  1.71462400   -4.83707200   -2.12135000
 C                 -0.63649700   -4.44910800   -1.33802100
 H                 -0.34376100   -0.48718700   -0.93114000
 H                 -2.08941800   -2.58711600   -2.30466500
 H                 -1.91398700   -1.67291400    0.59907000
 H                 -4.11714500   -1.18452900   -1.44680700
 H                 -3.41859100    1.17941500   -1.40811000
 H                 -0.76898300    2.79151500    2.15137700
 H                  0.95352100    3.39398000   -0.03984900
 H                 -1.33415100    4.94569000   -0.87505800
 H                 -4.08832100    2.39561300    0.77271800
 H                 -3.08589500    3.32995300    1.89465800
 H                 -3.47696300    0.55085700    1.88118000
 H                 -1.16993600    3.71013900   -2.99885200
 H                  0.44606500    4.16322300   -2.42615600
 H                 -0.27377100   -1.68343100   -3.72940300
 H                  0.30055400   -0.03639600   -3.41600500
 H                 -0.77473900    1.60552700   -2.25474300
 H                  1.15276700   -2.26756100   -1.91577100
 H                  0.30382100   -2.09481300    0.97904200
 H                  2.31540000   -3.39841400    0.42127300
 H                  4.57021200   -2.50708100    0.96709100
 H                  4.78999000   -0.32091600    2.10948900
 H                  2.76152400    1.00147900    2.65530400
 H                 -0.74198400   -0.10388100    1.93113900
 H                  0.20744600    0.91446100    3.03131300
 H                  1.95430800    3.73268800    2.42781700
 H                  4.30092300    2.98667500    2.74603700
 H                  6.13118100    4.05953600    1.45874700
 H                  5.60171900    5.86254000   -0.16404800
 H                  3.26298800    6.58903000   -0.49025000
 H                  0.87395100    6.58603900    1.45328100
 H                  0.87212100    6.07069900   -0.23595600
 H                 -6.26422900   -0.54206900   -2.33726400
 H                 -6.99259100    1.41592000   -3.65811100
 H                 -7.38881900    3.59351100   -2.53760100
 H                 -7.06904800    3.79825900   -0.08560800
 H                 -6.32574800    1.83944500    1.23384000
 H                 -6.09663000   -0.62447600    1.34913900
 H                 -5.93770200   -1.59158000   -0.13117100
 H                 -3.23313500   -1.42642800    3.15606000
 H                 -1.35435500   -1.09905400    4.72367900
 H                  0.51429000   -2.73573300    4.78572200
 H                  0.47062000   -4.71394500    3.28790100
 H                 -1.43974200   -5.05175900    1.74385300
 H                 -3.92253800   -4.47111300    1.32769300
 H                 -4.41488800   -2.78972200    1.59608000
 H                  0.27902100   -6.00321100    0.72166600
 H                  2.56944000   -6.86676200    1.05530000
 H                  4.32723200   -6.41555700   -0.63484900
 H                  3.76866500   -5.12419100   -2.68240700
 H                  1.47344700   -4.28001100   -3.02436700
 H                 -1.01784500   -4.60120100   -2.35770700
 H                 -1.36935000   -4.85137100   -0.63472100
 C                  5.53224600    0.95004700   -0.62016300
 C                  6.61463100    0.15087800   -0.26109100
 C                  6.74132700   -1.13284600   -0.78298200
 C                  5.78060400   -1.61840800   -1.66718400
 C                  4.70125700   -0.82032400   -2.02793800
 C                  4.57016300    0.47026000   -1.50838300
 C                  3.35691100    1.29174700   -1.89284400
 C                  3.47517000    2.79446700   -1.69507600
 N                  2.17907600    0.80108600   -1.10164200
 H                  5.44560600    1.94820800   -0.20081200
 H                  7.36347600    0.53505400    0.42491900
 H                  7.59016300   -1.75095400   -0.50708300
 H                  5.87599600   -2.61697100   -2.08235700
 H                  3.94759900   -1.20362800   -2.71197800
 H                  3.09735200    1.07798300   -2.93414000
 H                  4.36065900    3.17663300   -2.20772800
 H                  2.59656700    3.29845600   -2.10769400
 H                  3.55507500    3.05550200   -0.63607500
 H                  1.33310200    1.36546500   -1.31566800
 H                  2.33976400    0.84519600   -0.08916700
 H                  1.96279600   -0.18269700   -1.36380700

