131
sacharoza5Bn_SPEA_step_938_wB97XD_631gd_INVERSION_try3_step_710_FREQ.gjf
 C                 -0.73751300    0.27490100   -1.87659300
 C                 -0.48743200   -1.23119000   -1.96307900
 C                 -1.44265800   -2.05381900   -1.08986600
 C                 -2.88442200   -1.53092200   -1.12897900
 C                 -2.89102500   -0.00776200   -0.97495600
 O                 -2.12719500    0.57534800   -2.01912300
 O                 -2.29080100    0.23309800    0.25242400
 C                 -2.66494000    1.31235400    1.07734600
 O                 -3.24531700    2.36333700    0.35414900
 C                 -1.34682900    1.86662100    1.68908900
 C                 -1.11629700    3.19407300    0.97855300
 C                 -2.49302700    3.57830100    0.41649900
 C                 -3.71261100    0.78302800    2.06144900
 O                 -3.36886900   -0.48182800    2.56122200
 C                 -2.50532100    4.16958900   -0.98682800
 C                  0.05793100    1.06581700   -2.91361600
 O                 -1.83831400    3.34840700   -1.92218700
 O                  0.60158000    2.26450700   -2.37541100
 O                 -0.21700700    1.06216900    1.47489700
 C                  1.29980500    0.15586800    3.08370900
 C                  2.06073100   -0.95285200    3.45464400
 C                  3.26072000   -0.78634300    4.14049800
 C                  3.71430700    0.49142200    4.45847800
 C                  2.95854600    1.60180000    4.08968500
 C                  1.75778900    1.43742200    3.40381000
 C                 -0.01841500   -0.02691200    2.36890400
 O                 -0.59898200    4.10490000    1.91563000
 C                  1.29082500    5.01414300    0.64828500
 C                  2.43228900    4.68966300    1.38907700
 C                  3.66018400    4.52680700    0.75950900
 C                  3.75749200    4.66847900   -0.62656500
 C                  2.61920000    4.94541600   -1.37699100
 C                  1.39233400    5.12026600   -0.73812500
 C                 -0.01424100    5.27535200    1.36280000
 O                 -3.59125800   -2.11645500   -0.04785600
 C                 -5.89727900   -1.49833900   -0.57753000
 C                 -6.24577900   -1.09726300   -1.86774700
 C                 -7.11130300   -0.02387700   -2.06470200
 C                 -7.64031900    0.65184700   -0.96906300
 C                 -7.30718800    0.24986800    0.32321200
 C                 -6.43952200   -0.81968100    0.51651400
 C                 -4.90155900   -2.60503400   -0.35101700
 O                 -1.34919400   -3.38600300   -1.54386700
 C                 -0.78616000   -4.45781500    0.60675100
 C                 -1.16481200   -3.80800600    1.78501500
 C                 -0.34995800   -3.85499900    2.91306500
 C                  0.84948600   -4.56323400    2.87411300
 C                  1.23504700   -5.21314000    1.70444200
 C                  0.42380500   -5.15320300    0.57671700
 C                 -1.67444900   -4.42317100   -0.61308900
 O                  0.85021700   -1.40387600   -1.51163400
 C                  2.62641600   -2.98592800   -1.14195000
 C                  3.60542700   -3.85217300   -1.63581900
 C                  4.62488000   -4.31344600   -0.81334300
 C                  4.68489700   -3.90474600    0.51919300
 C                  3.70213500   -3.05969300    1.01975100
 C                  2.67024300   -2.61097000    0.19657000
 C                  1.56071100   -2.49514000   -2.08621600
 H                 -0.42777700    0.59236300   -0.87648000
 H                 -0.58447100   -1.56648900   -3.00516300
 H                 -1.08618700   -1.96628400   -0.05712200
 H                 -3.34436400   -1.79820700   -2.08753600
 H                 -3.89283700    0.41890900   -1.05384900
 H                 -1.48411600    2.05901800    2.76051800
 H                 -0.40748300    3.02698300    0.15619600
 H                 -2.98460900    4.27148700    1.11192100
 H                 -4.67184400    0.77045000    1.52645200
 H                 -3.80889500    1.46770000    2.90928600
 H                 -3.32116900   -1.06822300    1.78608400
 H                 -3.54674100    4.32787200   -1.29289600
 H                 -2.00230300    5.13958900   -0.99768500
 H                  0.91553100    0.47506900   -3.24748500
 H                 -0.57398200    1.28085100   -3.78304800
 H                 -2.25753000    2.46563900   -1.93442600
 H                 -0.14685800    2.87055700   -2.18466900
 H                  1.70718300   -1.95152500    3.20712900
 H                  3.84268000   -1.65676700    4.42992800
 H                  4.65020600    0.62078100    4.99277100
 H                  3.30344800    2.60077000    4.34117000
 H                  1.17359400    2.30683200    3.11284900
 H                 -0.02648300   -0.95817000    1.78927800
 H                 -0.85696000   -0.09325200    3.07190100
 H                  2.35827800    4.60161700    2.47011000
 H                  4.54668800    4.30553500    1.34670000
 H                  4.72021400    4.56094300   -1.11794200
 H                  2.68680000    5.04636100   -2.45552000
 H                  0.51075000    5.36614300   -1.32626400
 H                  0.15131700    5.93181900    2.22044900
 H                 -0.71910200    5.78535400    0.69276500
 H                 -5.84447900   -1.63144200   -2.72613500
 H                 -7.37852100    0.27749000   -3.07281600
 H                 -8.32250200    1.48258800   -1.12041800
 H                 -7.73012500    0.76489000    1.18024000
 H                 -6.17409700   -1.13142100    1.52456500
 H                 -5.17703800   -3.20628100    0.51909300
 H                 -4.84641400   -3.27009500   -1.22307000
 H                 -2.11253100   -3.27757000    1.82068800
 H                 -0.66097000   -3.35491700    3.82588200
 H                  1.47745600   -4.61747400    3.75908400
 H                  2.17219700   -5.75906400    1.66668200
 H                  0.73022000   -5.65903100   -0.33545100
 H                 -1.55331500   -5.34157000   -1.19228100
 H                 -2.72263700   -4.34429900   -0.31213800
 H                  3.57756600   -4.15222300   -2.68088600
 H                  5.37927300   -4.98519300   -1.21151700
 H                  5.48746900   -4.25277100    1.16196400
 H                  3.72888000   -2.74878200    2.05938800
 H                  1.88849600   -1.97961100    0.60803700
 H                  2.02610300   -2.16364300   -3.02632300
 H                  0.85618400   -3.30213500   -2.30750800
 C                  4.71800700   -0.62743800   -1.91460200
 C                  5.03465200   -1.17182500   -3.15768200
 C                  4.62532200   -0.54022200   -4.32637800
 C                  3.90654900    0.65240800   -4.25312200
 C                  3.60273800    1.20334800   -3.01432600
 C                  3.99504300    0.56054800   -1.83390200
 C                  3.59551600    1.17767900   -0.50844400
 C                  4.28349400    0.64245200    0.73457100
 N                  2.10060500    1.02964700   -0.36121400
 H                  5.03113100   -1.14815600   -1.01528200
 H                  5.59783100   -2.09837400   -3.20415100
 H                  4.87214900   -0.96858700   -5.29284400
 H                  3.59519900    1.15941600   -5.16116100
 H                  3.04451200    2.13565500   -2.96183800
 H                  3.75160600    2.25560000   -0.56297000
 H                  5.36588400    0.74697100    0.62392300
 H                  3.97294900    1.21215900    1.61494700
 H                  4.05494700   -0.41112500    0.91195300
 H                  1.75362900    1.27756700    0.57445700
 H                  1.79881100    0.06198500   -0.56803400
 H                  1.59325300    1.63737500   -1.04528300

