131
sacharoza5Bn_SPEA_step_938_wB97XD_631gd_INVERSION_try3_step_869_wB97XD_631gd_FREQ.gjf
 C                  0.91261300   -0.42442400   -2.06623000
 C                  1.51132500    0.96796800   -2.28704900
 C                  2.57312400    1.32205000   -1.23773000
 C                  3.50492900    0.14602500   -0.92242000
 C                  2.68764500   -1.13061700   -0.70766600
 O                  1.93460100   -1.40042200   -1.88005800
 O                  1.83682600   -0.85930800    0.35781300
 C                  1.49829400   -1.84991700    1.30631200
 O                  1.50936800   -3.14000000    0.75955600
 C                  0.02846200   -1.56415300    1.72225100
 C                 -0.78478800   -2.62285900    0.98468100
 C                  0.21300200   -3.75415200    0.72822900
 C                  2.55623500   -1.81140800    2.41349600
 O                  2.89259800   -0.50087400    2.78683100
 C                  0.08290600   -4.46579200   -0.60984000
 C                 -0.03215900   -0.86670800   -3.18523500
 O                  0.16152900   -3.56576000   -1.69860000
 O                 -1.21728000   -1.46695100   -2.67989200
 O                 -0.47381200   -0.30247700    1.35389900
 C                 -1.29220600    1.43168600    2.79672900
 C                 -1.59274300    2.78060500    2.61370600
 C                 -2.70783900    3.34980300    3.22748200
 C                 -3.53284000    2.56919300    4.03122000
 C                 -3.24266300    1.21694100    4.21216500
 C                 -2.13544000    0.64978300    3.59219000
 C                 -0.07702100    0.81991700    2.14658800
 O                 -1.88612300   -3.02002400    1.75849100
 C                 -3.30489100   -3.97185700    0.02978900
 C                 -3.28045500   -3.62163700   -1.31908500
 C                 -3.31379100   -4.59950800   -2.31056800
 C                 -3.38155200   -5.94294900   -1.95575800
 C                 -3.42054100   -6.30360700   -0.60844400
 C                 -3.37907700   -5.32361900    0.37675200
 C                 -3.14902300   -2.92879800    1.10710200
 O                  4.22132400    0.45767700    0.26130600
 C                  5.94905800   -1.27481400    0.25665600
 C                  6.25792700   -1.97201900   -0.91196500
 C                  6.48228100   -3.34632300   -0.87625200
 C                  6.40602400   -4.03109100    0.33285500
 C                  6.11138200   -3.33991500    1.50662700
 C                  5.88428700   -1.96849300    1.46748800
 C                  5.62954100    0.19606600    0.22380700
 O                  3.28035900    2.43719100   -1.73612900
 C                  2.93049700    3.94450700    0.18504600
 C                  2.71736400    3.38329400    1.44752500
 C                  1.82998400    3.97195500    2.34415200
 C                  1.14801900    5.13337900    1.98720700
 C                  1.35091500    5.69894300    0.73079600
 C                  2.23567600    5.10452900   -0.16394600
 C                  3.89833000    3.30896600   -0.78429400
 O                  0.39275900    1.83883000   -2.17809100
 C                 -0.67192500    3.94275300   -2.35541400
 C                 -1.45852300    4.66670000   -3.25080300
 C                 -2.53031400    5.42939100   -2.79260400
 C                 -2.82855600    5.46771400   -1.43360000
 C                 -2.04043200    4.75454300   -0.53238000
 C                 -0.96591700    3.99943900   -0.99005100
 C                  0.48252900    3.10433000   -2.83268300
 H                  0.33865000   -0.37231600   -1.13744000
 H                  1.95754900    1.04422000   -3.28880200
 H                  2.03763700    1.57674700   -0.31516200
 H                  4.19176300   -0.00797800   -1.76280500
 H                  3.31716800   -2.00616000   -0.53754000
 H                 -0.08479400   -1.72027200    2.80210600
 H                 -1.10070200   -2.19787800    0.02294000
 H                  0.14092300   -4.48679900    1.54132300
 H                  3.42609800   -2.36906100    2.04157000
 H                  2.18203900   -2.32894900    3.30148100
 H                  3.25469700   -0.07845300    1.98758100
 H                  0.87512700   -5.22059100   -0.68724100
 H                 -0.88190100   -4.97031200   -0.67715700
 H                 -0.35328600    0.00665400   -3.75851700
 H                  0.49105400   -1.55092500   -3.86267600
 H                  1.00425000   -3.07780000   -1.65168800
 H                 -0.95914000   -2.34472900   -2.31573400
 H                 -0.93341300    3.39723500    2.00853600
 H                 -2.92529100    4.40455500    3.08516200
 H                 -4.39732100    3.01089600    4.51686800
 H                 -3.88158800    0.60338400    4.84020500
 H                 -1.93302200   -0.41025600    3.71860300
 H                  0.41435800    1.53952800    1.48193400
 H                  0.67381700    0.50577400    2.87940100
 H                 -3.22850400   -2.57334900   -1.59911100
 H                 -3.27967500   -4.31055600   -3.35649700
 H                 -3.40742300   -6.70898200   -2.72426100
 H                 -3.48212800   -7.35100200   -0.32921800
 H                 -3.39112500   -5.60513600    1.42663300
 H                 -3.28723100   -1.92052600    0.69673800
 H                 -3.88502600   -3.06758700    1.90245500
 H                  6.33333800   -1.43772100   -1.85648300
 H                  6.72402500   -3.87892000   -1.79072600
 H                  6.58603500   -5.10112900    0.36391500
 H                  6.06356000   -3.86900900    2.45339200
 H                  5.64432100   -1.42915300    2.38138400
 H                  6.02444600    0.70119500    1.10862100
 H                  6.05962500    0.67427600   -0.66579400
 H                  3.25757900    2.48327600    1.72925300
 H                  1.67651500    3.52829100    3.32360100
 H                  0.46605300    5.60030200    2.69204200
 H                  0.82287700    6.60409100    0.44794700
 H                  2.39892800    5.55555200   -1.13995700
 H                  4.37218000    4.07521000   -1.40243900
 H                  4.68203400    2.77821000   -0.23680900
 H                 -1.23977200    4.62777400   -4.31496200
 H                 -3.13707000    5.98748000   -3.49860600
 H                 -3.66771700    6.05653200   -1.07675100
 H                 -2.26123700    4.79043200    0.53049200
 H                 -0.33757100    3.45681700   -0.28826400
 H                  0.43981800    2.95910800   -3.92092300
 H                  1.44055700    3.56863300   -2.58493500
 C                 -4.56878200    0.65396800    1.00769300
 C                 -5.48616400   -0.13861600    1.68832200
 C                 -6.17808000   -1.13962800    1.01147700
 C                 -5.94954400   -1.34398400   -0.34678300
 C                 -5.03291700   -0.54836800   -1.02821100
 C                 -4.33249600    0.45385700   -0.35365300
 C                 -3.29802300    1.31582600   -1.04113600
 C                 -3.56785400    1.64096700   -2.50334300
 N                 -1.95469800    0.64156600   -0.95503900
 H                 -4.03855700    1.44102900    1.53767900
 H                 -5.66070900    0.03266900    2.74566800
 H                 -6.89719300   -1.75793400    1.53968900
 H                 -6.48208800   -2.12590200   -0.87834800
 H                 -4.87240400   -0.71662900   -2.08910700
 H                 -3.18118000    2.24700300   -0.48086500
 H                 -4.55012100    2.10832400   -2.60052900
 H                 -2.81830700    2.34141700   -2.88076800
 H                 -3.54892400    0.74138700   -3.12758600
 H                 -1.90440500   -0.21661000   -1.54870700
 H                 -1.69568700    0.35056800    0.00341700
 H                 -1.20157600    1.26098900   -1.30713800

