131
sacharoza5Bn_RPEA_step_328_wB97XD_631gd_try2_FREQ.gjf
 C                 -1.32665200    0.90155200   -1.93669400
 C                 -2.47301400    1.67277500   -1.27387400
 C                 -1.94434200    2.41519500   -0.04906000
 C                 -0.78888400    3.31338300   -0.50498100
 C                  0.29019000    2.43053900   -1.14735900
 O                 -0.25729400    1.77484700   -2.29188500
 O                  0.66828600    1.45822500   -0.22423700
 C                  2.01617300    1.25043700    0.12546200
 O                  2.89561100    1.46334500   -0.95235600
 C                  2.17161300   -0.23728200    0.55772400
 C                  3.30656700   -0.78794000   -0.32749300
 C                  3.47245600    0.25006100   -1.44358500
 C                  2.39937200    2.22874400    1.23176200
 O                  3.68757500    1.96193400    1.72694000
 C                  2.87000700   -0.12628800   -2.78715500
 C                 -1.77812200    0.13492700   -3.17820600
 O                  1.47750600   -0.38148100   -2.72596200
 O                 -2.41091800   -1.08417500   -2.80114600
 O                  1.01920000   -1.02104800    0.37523000
 C                 -0.92603000   -2.03602300    1.22607200
 C                 -0.56804400   -3.38303800    1.35564000
 C                 -1.46840800   -4.39114100    1.01810200
 C                 -2.73758600   -4.06068000    0.54232300
 C                 -3.10615300   -2.72315500    0.42383300
 C                 -2.20419500   -1.71759200    0.76701100
 C                  0.10521000   -0.96807600    1.47072500
 O                  4.54584300   -0.85620700    0.34200800
 C                  3.92420400   -2.05603900    2.40650400
 C                  4.04151200   -1.02977600    3.34878200
 C                  3.25730300   -1.03564900    4.49597100
 C                  2.35823100   -2.07758100    4.72631200
 C                  2.24463100   -3.10894100    3.79955700
 C                  3.02013000   -3.08969300    2.64028600
 C                  4.74480300   -2.01688400    1.13487600
 O                 -0.25003000    4.01184100    0.59095700
 C                  1.03842900    5.70316600   -0.62221400
 C                  2.37890900    5.66488600   -0.22861100
 C                  3.39623700    5.83848200   -1.16025100
 C                  3.08393000    6.06103500   -2.49982900
 C                  1.75226100    6.12373200   -2.89941900
 C                  0.73671100    5.94947900   -1.96273600
 C                 -0.05470700    5.41100000    0.37637300
 O                 -3.00568700    3.11333100    0.54829600
 C                 -2.30310200    2.31180200    2.78058000
 C                 -1.05082000    2.43316600    3.38498700
 C                 -0.52891500    1.39482000    4.15320800
 C                 -1.25200500    0.21621200    4.31368200
 C                 -2.49530500    0.07778300    3.69914200
 C                 -3.01474900    1.12052100    2.93859100
 C                 -2.86088000    3.43559000    1.93617800
 O                 -3.43472400    0.68579800   -0.94888900
 C                 -5.61854200   -0.12564500   -0.63220000
 C                 -5.81063100   -1.06449200   -1.64976700
 C                 -6.49341600   -2.25006800   -1.39795700
 C                 -6.99651100   -2.50520400   -0.12307200
 C                 -6.81758200   -1.57103800    0.89349300
 C                 -6.12995700   -0.38750300    0.63810800
 C                 -4.80272200    1.10837800   -0.89528500
 H                 -0.95254200    0.17252200   -1.20554200
 H                 -2.89960400    2.39179800   -1.99089900
 H                 -1.54387800    1.67186800    0.64709700
 H                 -1.15864700    4.01190600   -1.26674100
 H                  1.13963400    3.01026300   -1.51075100
 H                  2.47674700   -0.26285300    1.60373600
 H                  3.02032500   -1.77679000   -0.71462700
 H                  4.54125600    0.43476700   -1.58971100
 H                  1.69476700    2.11467900    2.05960800
 H                  2.30257900    3.24780200    0.83860300
 H                  4.29142200    1.97139000    0.97236300
 H                  3.07000200    0.67439400   -3.50930000
 H                  3.34944200   -1.04059000   -3.14690400
 H                 -2.44867800    0.74209700   -3.79860500
 H                 -0.90644500   -0.13120000   -3.78262400
 H                  1.01409200    0.47147100   -2.60938700
 H                 -3.06145000   -0.84384800   -2.11479700
 H                  0.42585700   -3.62942800    1.71818400
 H                 -1.18581600   -5.43377600    1.13536700
 H                 -3.44122100   -4.84374400    0.27720300
 H                 -4.09666400   -2.45955900    0.06594900
 H                 -2.50159400   -0.67914800    0.66321200
 H                 -0.35890800    0.02142700    1.53862200
 H                  0.65183000   -1.15712100    2.40478700
 H                  4.71481800   -0.20045600    3.15503600
 H                  3.35235400   -0.23038300    5.21802900
 H                  1.75804300   -2.08943500    5.63136400
 H                  1.55107300   -3.92587100    3.97776600
 H                  2.92030600   -3.88544100    1.90514500
 H                  5.81199400   -2.00377900    1.37385600
 H                  4.54110800   -2.91323600    0.53122000
 H                  2.62498600    5.50614700    0.81858700
 H                  4.43333900    5.81042300   -0.84031400
 H                  3.87700100    6.20027100   -3.22797100
 H                  1.50402900    6.31670800   -3.93848400
 H                 -0.30234500    6.01645800   -2.27751200
 H                  0.20129400    5.80845400    1.36171000
 H                 -1.00314000    5.86611400    0.05956900
 H                 -0.47826000    3.34453400    3.24018200
 H                  0.44532000    1.50435000    4.62074600
 H                 -0.84389900   -0.59717000    4.90634100
 H                 -3.05643900   -0.84528800    3.80715000
 H                 -3.97848200    1.00540400    2.44882900
 H                 -3.87643800    3.68394000    2.25739700
 H                 -2.23778000    4.32727000    2.04869000
 H                 -5.42354600   -0.86551800   -2.64709600
 H                 -6.64150300   -2.97083600   -2.19619700
 H                 -7.53427600   -3.42733500    0.07413700
 H                 -7.21694300   -1.76158600    1.88460100
 H                 -5.99865600    0.34415700    1.43115700
 H                 -5.07127900    1.56662900   -1.85768300
 H                 -4.92302700    1.85692000   -0.10887800
 C                  1.88814200   -4.64570900   -1.21236800
 C                  3.17649200   -5.03449000   -0.86107400
 C                  4.25019600   -4.74379600   -1.70082100
 C                  4.02836300   -4.07056600   -2.89782300
 C                  2.73681800   -3.68698600   -3.25037600
 C                  1.65806700   -3.96708900   -2.41215600
 C                  0.26669500   -3.51114000   -2.79664100
 C                 -0.79103600   -4.60747000   -2.81971200
 N                 -0.16104300   -2.43542300   -1.85043900
 H                  1.06065700   -4.87991500   -0.54740100
 H                  3.34391500   -5.57422600    0.06627600
 H                  5.25463000   -5.05022400   -1.42620200
 H                  4.85763700   -3.85000600   -3.56250700
 H                  2.56527800   -3.16833000   -4.19039000
 H                  0.31141300   -3.02357400   -3.77415000
 H                 -1.75665500   -4.19912700   -3.13417700
 H                 -0.49582400   -5.38843100   -3.52402900
 H                 -0.91611500   -5.06262100   -1.83225600
 H                 -0.21538300   -2.77089400   -0.88285100
 H                 -1.09279600   -2.04387600   -2.11470800
 H                  0.52737500   -1.65601100   -1.86580000

